ITEM: TIMESTEP
100000
ITEM: NUMBER OF ATOMS
5747
ITEM: BOX BOUNDS pp pp pp
-1.5660702037710793e+01 1.5660702037710793e+01
-1.5660702037710793e+01 1.5660702037710793e+01
-2.7964502342660047e+01 2.7964502342660047e+01
ITEM: ATOMS id type x y z vx vy vz ix iy iz
3912 4 -9.97386 -11.9031 -25.8117 0.0152251 -0.0296398 0.00263358 0 0 0
3913 4 -11.7429 -11.5903 -26.0019 -8.31507e-05 -0.00328138 0.021375 0 0 0
3916 4 -10.2588 -12.5293 -23.3073 0.0114846 0.00505476 -0.0210647 0 0 0
3921 12 -8.36535 -13.3534 -22.4447 -0.00494877 0.00397219 0.00419833 0 0 0
4845 16 -9.44939 -11.1056 -21.4361 -0.00405558 0.00687375 0.00154325 0 0 1
4846 5 -9.20205 -11.9721 -21.7588 -0.0228124 -0.00198246 0.0107293 0 0 1
4847 5 -8.87699 -10.9575 -20.6833 -0.00598335 -0.000654964 0.00450897 0 0 1
5371 5 -9.27181 -9.39963 -25.8788 0.00393499 -0.0116849 0.013004 1 0 0
5370 16 -10.223 -9.37964 -25.7737 0.0028318 0.00477005 0.000187618 1 0 0
5372 5 -10.3581 -9.15121 -24.8541 -0.00556709 -0.00075971 0.000280234 1 0 0
3910 10 -10.9501 -12.3236 -26.003 0.0023169 -0.000235747 0.00197472 0 0 0
3911 4 -10.926 -12.6138 -27.0429 -0.00598097 0.0179149 -0.0033603 0 0 0
3909 4 -9.01233 -13.9146 -25.6224 -0.00684004 0.00373856 0.0118808 0 0 0
3901 11 -11.0978 -13.5449 -25.1616 -0.00660949 0.000351676 -0.000361441 0 0 0
3906 10 -9.9594 -14.4334 -25.6071 -0.00486201 -0.000524268 -0.00641027 0 0 0
3907 4 -10.1592 -14.9033 -26.5587 0.0160445 0.00802015 -0.0149251 0 0 0
3915 4 -11.9438 -12.4879 -23.5804 -0.0108244 -0.0176394 0.0151369 0 0 0
3914 8 -11.0793 -13.1285 -23.6735 0.0048085 0.00667193 -0.00791107 0 0 0
3905 4 -12.5353 -14.249 -26.464 -0.00982292 0.0171376 0.00551813 0 0 0
3903 4 -13.1823 -13.79 -24.8995 0.0168059 -0.0110432 0.0283178 0 0 0
3902 10 -12.3454 -14.2532 -25.4009 0.00405242 -0.00673889 0.00299544 0 0 0
5190 16 -11.1292 -9.69838 -23.0464 0.00205574 -0.0016838 -0.000321306 1 1 0
5192 5 -11.6938 -9.27571 -22.3993 7.68701e-05 -0.00952597 0.0031307 1 1 0
5191 5 -10.3476 -9.95061 -22.5547 0.0165769 0.0256358 -0.00901047 1 1 0
5363 5 -14.2537 -11.9828 -22.3717 1.7051e-05 0.00900853 0.00274818 0 2 0
5361 16 -13.9724 -11.5451 -23.1752 -0.007096 -0.000832795 -0.00515491 0 2 0
5362 5 -14.1025 -10.6133 -22.999 -0.000809148 0.0016508 -0.0136468 0 2 0
3920 17 -8.72956 -14.802 -22.2145 -0.000488139 0.000688712 -0.00295466 0 0 0
3917 8 -11.2574 -14.2463 -22.6021 -0.00849289 0.00641679 0.00616796 0 0 0
3919 2 -11.482 -13.9017 -21.5701 -0.00714825 0.0173275 0.00265942 0 0 0
3918 2 -12.1739 -14.8545 -22.7582 -0.00504129 0.00510825 -0.00797792 0 0 0
5259 16 -14.4922 -10.8007 -25.7555 -0.00291672 -0.00137837 -0.00245585 2 0 0
4685 5 -11.75 -9.66553 -26.8333 0.00905156 -0.000509338 -0.0160101 -1 1 1
5261 5 -14.134 -11.236 -24.9819 0.0104383 -0.0040441 -0.0100497 2 0 0
4684 5 -13.1785 -10.1665 -26.8235 0.00767482 0.0038404 0.016415 -1 1 1
4683 16 -12.4797 -9.8835 -27.4132 -0.0025488 -0.00480453 0.000122841 -1 1 1
4511 5 -7.87832 -11.9256 -23.2188 -0.0238073 -0.000146272 -0.0139248 1 0 1
3904 4 -12.3834 -15.28 -25.0681 -0.0225375 -0.0113991 -0.0134039 0 0 0
5666 19 -12.8071 -8.04765 -25.4059 0.00149514 -0.00337704 -0.00114878 1 1 1
4248 16 -8.0205 -11.2188 -27.6905 -0.00200392 -0.00540073 0.0039487 1 0 1
3141 12 -14.3868 -9.40269 -21.6258 -0.00460341 0.00157177 0.000682254 0 0 0
5006 5 -14.807 -15.0406 -23.1741 0.00215601 -0.000936301 -0.00575168 0 0 0
5131 5 -14.8371 -15.5662 -20.9709 -0.0212677 -0.00862672 -0.00948286 0 0 0
4657 5 -15.4018 -14.3576 -27.1574 -0.019813 -0.0199797 -0.00315914 1 0 1
5004 16 -14.8149 -14.4497 -23.9271 -0.00344398 -0.00273507 -0.00712368 0 0 0
5005 5 -15.0555 -13.5984 -23.5615 0.0143298 0.00137972 -0.00497698 0 0 0
5260 5 -15.3922 -11.121 -25.816 0.00728425 -0.0289574 -0.00870273 2 0 0
3144 15 -12.3469 -7.93934 -21.2357 0.00825076 0.00304876 0.000944389 0 0 0
3924 15 -10.2049 -15.1563 -22.5545 -0.00420192 -0.00454026 0.00270347 0 0 0
3908 4 -9.87614 -15.2464 -24.901 -0.00722187 0.0142135 0.0108883 0 0 0
3923 15 -8.54813 -15.1013 -20.7131 0.0025555 -0.00224332 -0.00166443 0 0 0
3140 17 -13.6844 -8.54805 -20.6262 -0.000502372 0.00698299 0.00277446 0 0 0
3146 2 -13.6473 -11.3891 -20.2765 -0.00637187 -0.0215947 0.00984837 0 0 0
5597 5 -15.6245 -13.4667 -20.4204 0.00537841 -0.00914084 -0.00707975 1 1 0
3926 2 -10.5847 -15.503 -20.1153 -0.0203114 0.00621901 0.0241826 0 0 0
5387 5 -7.60617 -9.77238 -25.1882 0.00856436 -0.00256165 0.00287276 1 1 0
5385 16 -7.20469 -9.34684 -25.9457 0.00111993 0.00305964 0.00213122 1 1 0
4509 16 -7.53163 -11.3462 -23.8972 -0.00133745 0.00473829 0.00184583 1 0 1
5386 5 -6.26287 -9.43391 -25.7987 0.00252747 0.0376405 0.0123468 1 1 0
4510 5 -7.0204 -11.9217 -24.4661 0.00475005 0.00617132 0.00589329 1 0 1
2602 10 -4.44579 -13.4563 -22.4964 0.0037527 -0.00132785 -0.00474682 0 0 0
2605 4 -3.75075 -14.2746 -22.6135 0.0198954 0.0128499 -0.00871745 0 0 0
2604 4 -5.3554 -13.6819 -23.0331 -0.00751797 -0.00462662 0.0157373 0 0 0
2603 4 -4.03035 -12.6485 -23.0806 0.0235091 -0.0134246 -0.00759531 0 0 0
2609 4 -6.30816 -11.7382 -21.7506 0.0101431 -0.00414978 -0.0101306 0 0 0
5602 5 -5.25692 -12.3554 -25.3779 -0.000728566 -0.0111202 -0.00884781 0 0 0
5601 16 -5.9003 -12.9968 -25.0766 -0.0031412 -0.00413501 0.000850108 0 0 0
5603 5 -6.05624 -13.5561 -25.8376 -0.0110261 -0.0103561 0.0070362 0 0 0
2607 4 -4.73082 -11.0851 -21.1674 0.00899246 -0.00715347 -0.0155033 0 0 0
2606 10 -5.46725 -11.8708 -21.0861 0.00155722 0.00166323 0.00149376 0 0 0
2601 11 -4.76138 -13.2136 -21.049 -0.00476938 0.00251526 -0.00654838 0 0 0
2610 10 -5.7528 -14.1966 -20.4949 -0.00347712 -0.00325757 0.00162004 0 0 0
2362 12 -0.760058 -10.9151 -20.8844 0.00407435 0.00502399 -0.00520412 0 0 0
4646 5 -4.40599 -10.3915 -26.3335 -0.00632621 -0.00126344 -0.0130339 1 1 1
4644 16 -4.2878 -11.3276 -26.495 -0.00136611 -0.00271966 -0.00134512 1 1 1
2615 4 -2.84853 -12.3105 -20.7254 0.00845875 -0.00701835 0.00238155 0 0 0
4645 5 -3.34951 -11.4267 -26.6562 -0.00214262 0.00157313 -0.00857336 1 1 1
5440 5 -1.63884 -10.7873 -22.3317 -0.00331199 0.0011553 0.000410227 0 0 0
5441 5 -1.56755 -11.6058 -23.6032 -0.00395057 -0.00258936 0.00274982 0 0 0
5439 16 -2.16098 -11.0617 -23.0855 -0.00371665 -0.00112267 0.0014779 0 0 0
4259 5 -1.85157 -8.06077 -20.2894 0.00279651 0.00858619 0.00853966 -1 -1 1
4346 5 -0.225676 -13.7413 -23.9031 0.00412754 0.00253475 0.00555943 0 1 1
4344 16 -0.566042 -12.9382 -24.2972 0.00708638 0.00039897 -0.0013172 0 1 1
5615 5 -3.23888 -9.66825 -22.9452 0.00643535 0.00831812 -0.0105693 0 1 0
4345 5 -0.65262 -13.1455 -25.2277 -0.00183458 -0.00991528 0.00182565 0 1 1
2616 4 -2.9104 -13.9884 -20.369 -0.0029142 -0.00580394 0.00382755 0 0 0
4258 5 -1.0841 -9.20709 -20.9129 -0.00828713 -0.000727115 0.0120205 -1 -1 1
4257 16 -0.9777 -8.31326 -20.5874 -0.000199211 0.000150406 0.00685683 -1 -1 1
2611 4 -6.48777 -14.3555 -21.2701 0.00322091 -0.0275412 0.000391546 0 0 0
4959 16 -1.52701 -11.3925 -26.8015 0.00234381 0.000414747 -0.00182257 1 1 0
4961 5 -1.35881 -10.5708 -26.3404 0.00937347 -0.00408329 0.00359464 1 1 0
5265 16 -0.140947 -15.0544 -22.4717 0.00376349 -0.000934103 9.01717e-06 0 1 0
5266 5 -0.837812 -15.2937 -21.8607 -0.0136015 0.0129232 -0.0146197 0 1 0
4960 5 -0.910174 -11.3876 -27.5334 0.00740139 -0.0034771 0.0024226 1 1 0
4907 5 -2.06188 -14.4956 -27.6014 0.00660543 -0.0041696 2.38319e-05 2 1 1
4905 16 -2.68864 -14.1727 -26.954 0.00306155 0.00101376 -0.00593611 2 1 1
4906 5 -2.40683 -13.2759 -26.7736 0.0106848 -0.00236893 -0.000909985 2 1 1
4249 5 -7.80262 -10.4676 -27.1387 -0.00264385 -2.28964e-05 -0.00309664 1 0 1
4896 16 -7.0914 -8.37037 -22.3791 -0.00272002 -0.00485794 0.00182068 1 0 1
4898 5 -6.90276 -8.77971 -21.5347 -0.0129334 0.0014427 0.00719965 1 0 1
4897 5 -6.96465 -9.07084 -23.019 8.86853e-05 -0.0109682 0.00908959 1 0 1
5614 5 -3.60345 -8.62415 -21.9114 0.0138803 0.00247985 -0.00201871 0 1 0
5613 16 -3.78609 -8.89441 -22.8113 -0.00259468 -0.00018538 0.00204201 0 1 0
4542 16 -0.849459 -9.11888 -25.4213 -0.000666482 0.00591697 -0.00148996 0 0 1
4544 5 -0.851344 -8.55387 -24.6487 0.0172742 -0.00137612 0.00390537 0 0 1
2101 12 -3.52878 -8.1326 -19.9844 0.00294381 -0.00023183 -0.00311153 0 0 0
2613 4 -5.34117 -15.1395 -20.1665 -0.013168 -0.012802 -0.0135319 0 0 0
4956 16 -4.07761 -8.9267 -25.4208 0.0023431 0.0033436 0.0025818 1 -1 0
4958 5 -3.27674 -8.60183 -25.8322 0.00366877 0.000134499 0.00262864 1 -1 0
4957 5 -3.92396 -8.82323 -24.4817 0.00772603 -0.00916808 0.00306839 1 -1 0
4338 16 -5.25644 -14.8324 -26.9465 -0.00161856 0.00477083 0.00214824 1 0 1
4339 5 -5.65283 -15.2812 -27.6933 -0.0247343 0.0261927 0.00151822 1 0 1
5695 19 -0.21944 -15.5378 -25.7465 0.00619008 0.00385886 0.00247727 0 1 1
2608 4 -5.94289 -11.7274 -20.1272 0.0134991 -0.00764323 0.00877847 0 0 0
2614 8 -3.46224 -13.0666 -20.2586 0.003334 -0.00204501 0.00377787 0 0 0
4340 5 -4.39359 -14.5613 -27.2599 -0.0114563 0.014412 -0.0170721 1 0 1
5267 5 0.202625 -14.228 -22.1323 -0.00495025 0.00606554 -0.00816041 0 1 0
2360 17 0.404063 -11.7359 -20.5494 0.00245071 0.0021745 0.00591903 0 0 0
2361 12 0.565624 -13.01 -21.2108 0.00417633 -0.00170641 -0.00169111 0 0 0
4543 5 0.00590441 -8.97101 -25.8247 0.00756425 -0.0238931 0.00481631 0 0 1
5247 16 1.34382 -8.69731 -26.9646 0.000803186 0.00245286 -0.00060147 1 1 0
2347 4 0.823725 -10.3891 -22.8064 0.00367662 -0.00134843 0.00232235 0 0 0
2351 4 1.8391 -12.6787 -23.0885 -0.00121505 -0.00952479 -0.0106157 0 0 0
2353 4 1.83225 -12.4985 -24.8019 0.000947122 -0.000344309 -0.00106442 0 0 0
2350 10 2.43357 -12.3312 -23.9205 0.00330173 0.00112187 -0.002931 0 0 0
2352 4 3.3616 -12.873 -24.028 -0.00321784 -0.00997662 -0.00320977 0 0 0
2341 11 2.68454 -10.8549 -23.7296 0.000584366 0.00240557 0.000764133 0 0 0
2346 10 1.35604 -10.2131 -23.7295 0.00135134 0.00154415 0.00154941 0 0 0
2348 4 0.678695 -10.5732 -24.4896 -0.0278677 0.00994707 0.0230929 0 0 0
2343 4 4.42659 -10.9112 -25.0785 -0.000473135 -0.00842239 0.00251969 0 0 0
3401 12 6.56353 -13.5353 -22.0626 -0.0041673 0.00549116 0.00521838 0 0 0
2349 4 1.37234 -9.14578 -23.8936 -0.0197769 0.00330413 0.00967948 0 0 0
2342 10 3.56603 -10.2964 -24.8598 0.00700143 0.0029617 -0.000430869 0 0 0
2345 4 3.08727 -10.2091 -25.8239 -0.0196285 0.00345187 0.0130749 0 0 0
2344 4 4.02217 -9.42032 -24.4231 0.0168484 -0.00419725 0.00414872 0 0 0
2354 8 3.43102 -10.5598 -22.4066 -0.00331148 0.00804355 0.0111516 0 0 0
2356 4 4.49007 -10.7698 -22.4328 -0.00610225 -0.00512902 0.00460669 0 0 0
2355 4 3.2518 -9.5152 -22.1991 0.0174799 0.0121795 0.00723355 0 0 0
2364 15 1.66265 -10.786 -20.8393 0.00135391 -0.00394229 -0.00340313 0 0 0
2357 8 2.90507 -11.3156 -21.2071 0.000583381 -0.00755943 -0.00424408 0 0 0
3400 17 6.10383 -14.5178 -21.0571 -0.00169704 -0.000155212 0.00246916 0 0 0
3404 15 4.60191 -14.0527 -20.65 0.00575798 -0.00332526 -0.00101093 0 0 0
4660 5 6.34726 -11.8743 -20.7679 0.00207413 0.00489979 -0.0165376 0 0 1
2359 2 2.94111 -12.4203 -21.3196 0.0108749 -0.00676948 -0.00896693 0 0 0
4531 5 5.67604 -13.6371 -23.7193 0.0234317 0.0114592 0.00731577 0 0 1
4530 16 5.44646 -13.3777 -24.6116 0.00155707 -0.011087 0.00655525 0 0 1
4532 5 6.23133 -12.9426 -24.9445 -0.0242749 0.025258 -0.00624368 0 0 1
4659 16 6.32849 -10.9745 -20.4418 -0.00403226 -0.00224953 0.00245347 0 0 1
4987 5 6.85203 -9.50626 -27.2785 -0.00357924 0.015555 0.00762078 -1 0 0
4986 16 6.1697 -9.88378 -26.7235 -0.00321322 0.003668 -1.73929e-05 -1 0 0
5249 5 0.986126 -8.43264 -27.8121 -0.0205539 0.00841413 0.010201 1 1 0
3385 4 1.95289 -15.2381 -22.0404 0.00746719 -0.00183342 -0.0020274 0 0 0
4661 5 7.25021 -10.732 -20.3534 -0.00571423 0.00414535 0.00228596 0 0 1
4679 5 4.66022 -9.16637 -27.088 0.00458865 0.0155027 0.00434759 0 0 1
4675 5 4.51427 -14.8907 -25.1533 0.00484645 -0.00288516 0.0150632 -1 -1 1
5522 5 7.33165 -13.2263 -27.0586 0.0103908 -0.00452646 0.00891043 -1 0 0
5520 16 7.33146 -12.3776 -26.6158 0.00670275 -0.00241981 0.00488261 -1 0 0
5248 5 2.28771 -8.75893 -27.1112 -0.00204954 0.011225 -0.0227563 1 1 0
4677 16 3.90877 -8.72743 -27.4866 -0.00444022 -0.00858578 -0.00501675 0 0 1
3384 4 3.69202 -15.3347 -21.9082 0.0122594 -0.021854 -0.0100228 0 0 0
5729 19 6.98814 -10.2378 -23.7256 -0.00315833 0.00275183 0.00344882 0 0 0
5455 5 3.3219 -15.2969 -27.3547 0.00896216 -0.0102243 0.00310115 -1 1 0
2358 2 3.68359 -11.1236 -20.4382 -0.0205051 0.00347509 0.0138954 0 0 0
4966 5 1.90283 -9.01869 -20.179 -0.00245046 0.0073541 -0.0170536 0 0 0
4967 5 0.599854 -8.25711 -20.0604 -0.00215738 0.00324722 0.0117709 0 0 0
4988 5 6.37351 -10.8186 -26.6949 0.0137568 0.00750419 0.00377718 -1 0 0
5454 16 2.40982 -15.3752 -27.6343 0.00803068 -0.000776826 0.00346815 -1 1 0
4516 5 7.93321 -13.0918 -22.8671 -0.0042071 0.0131082 -0.000488733 1 1 1
5521 5 8.09116 -11.9194 -26.9751 -0.0138504 0.0113034 -0.0206241 -1 0 0
4270 5 8.3535 -8.57329 -21.6144 -0.000632676 -0.00094057 -0.00965708 -1 0 1
5727 18 7.88042 -9.72737 -24.3067 -0.00345746 0.00436856 0.00223008 0 0 0
4517 5 8.66427 -13.6123 -24.0863 -0.00968842 -0.0102897 0.00614834 1 1 1
4515 16 8.65928 -12.8906 -23.4575 -0.00304101 -0.0013335 -0.0039715 1 1 1
5388 16 10.9713 -11.6671 -22.5187 -0.00279041 -0.00158391 0.000542745 -1 0 0
5390 5 10.8547 -10.7176 -22.4863 0.00607962 -0.000189016 -0.00907968 -1 0 0
5389 5 10.0816 -12.0165 -22.5687 -0.00576573 0.00637889 -0.00133424 -1 0 0
4656 16 15.2143 -14.0598 -26.583 -0.00194455 0.00500472 0.00589514 0 0 1
4658 5 15.5109 -14.2861 -25.7015 0.00508812 0.00190402 0.00274179 0 0 1
3518 4 9.18837 -14.3312 -20.9301 0.000506882 -0.00999744 0.00453772 0 0 0
4246 5 13.9034 -10.5893 -20.6564 0.0179872 0.00277164 0.000707177 -1 -1 1
4630 5 11.7301 -8.259 -22.1968 0.016902 -0.0129684 -0.00165236 0 0 1
3519 4 10.7242 -14.0886 -21.9858 -0.00497411 0.00318761 0.00157457 0 0 0
3516 10 10.2132 -14.575 -21.1681 0.00247083 -0.000957018 0.00351321 0 0 0
4190 5 11.7773 -9.00295 -26.1078 0.0143554 0.00210197 0.000383211 0 0 1
4188 16 11.6955 -8.37473 -25.3903 0.00345524 0.00183398 -0.000637114 0 0 1
5185 5 14.3067 -12.6199 -26.957 0.00501203 0.00834842 -0.00613345 0 0 0
5186 5 13.6269 -11.9333 -25.7915 0.020339 0.0102813 0.00172282 0 0 0
5184 16 13.9658 -11.7721 -26.6721 -0.00484761 0.00520092 -0.00877506 0 0 0
3528 2 12.8312 -14.622 -20.7482 -0.0148536 0.0013378 0.00074191 0 0 0
4950 16 13.1128 -12.4994 -24.0904 0.00675972 -0.00154263 0.00151499 -1 0 0
4952 5 12.6182 -12.2504 -23.3097 0.00299227 -0.0047685 0.000171208 -1 0 0
3517 4 10.8268 -14.2301 -20.349 -0.0178905 -0.0116531 0.0229844 0 0 0
4189 5 10.8108 -8.51133 -25.0513 -0.00209204 0.00238158 -0.014778 0 0 1
5448 16 11.5233 -14.8415 -24.9923 0.00274233 -0.000403824 0.000628519 0 0 0
5340 16 11.0929 -11.4203 -26.3835 0.00252501 -0.00645021 -0.00292745 0 0 0
5341 5 11.1053 -11.8497 -25.5281 0.00196073 -0.00767269 -0.00352049 0 0 0
5342 5 11.8555 -11.7745 -26.8409 0.0188029 0.0153431 0.00739453 0 0 0
4629 16 11.0467 -8.91311 -22.3431 0.00245764 0.00261361 -0.00345739 0 0 1
4631 5 10.231 -8.41225 -22.3426 0.0128656 0.0194008 0.00718658 0 0 1
5658 18 15.3134 -8.13795 -26.1303 -0.00476703 7.97018e-05 -0.00364419 0 1 0
5660 19 15.5951 -7.95899 -27.2281 -0.00611234 0.00329519 -0.00331466 0 1 0
5659 19 15.0643 -8.26683 -25.0032 0.0020798 -0.00444531 -0.00338219 0 1 0
4951 5 12.9053 -13.4247 -24.2209 -0.00145429 0.00191726 -0.00991325 -1 0 0
4533 16 14.2915 -9.69728 -22.0804 0.00428906 0.00413102 0.00326964 0 0 1
4535 5 14.1484 -9.85217 -23.0141 -0.000118783 0.00682864 0.00348891 0 0 1
4534 5 15.2407 -9.75432 -21.9705 0.00529917 0.0104329 -0.00253008 0 0 1
5728 19 8.75226 -9.19992 -24.907 -0.00724395 -0.00016761 -0.00713879 0 0 0
5471 5 8.13454 -15.5883 -25.1779 -0.00373353 0.00225649 -0.0155788 1 1 0
5469 16 8.74157 -14.8982 -25.4453 0.00273051 0.00049035 -0.00536686 1 1 0
5470 5 9.08128 -15.1918 -26.2907 -0.00253061 0.0115903 -0.0112273 1 1 0
5449 5 10.5827 -14.7486 -25.1434 0.00555216 0.0118649 -0.00915343 0 0 0
3525 4 11.9956 -15.6336 -22.7927 0.000391791 -0.0131278 0.000701411 0 0 0
5450 5 11.8327 -15.374 -25.725 0.000249444 -0.0197243 0.013675 0 0 0
5596 5 14.8548 -12.212 -20.5122 0.0297349 0.00892556 0.0145157 0 1 0
5595 16 15.2896 -12.8729 -21.051 0.00287166 0.000128631 0.00323141 0 1 0
5295 16 8.81633 -9.91209 -20.0148 0.0036281 0.00355329 -0.00225444 0 0 0
4825 5 9.41412 -10.3203 -27.5645 -0.00230639 0.00264441 0.00467374 0 1 1
4364 5 13.5507 -15.0752 -27.545 -0.0214403 -0.0112376 0.0171637 0 0 1
3139 2 -10.3341 -7.78778 -21.1312 0.0104292 0.00885558 0.00856023 0 0 0
3137 8 -11.1739 -7.7116 -20.4079 0.00125245 0.00341162 -0.00169466 0 0 0
5590 5 -15.3856 -5.22655 -21.7737 -0.00749814 0.00628438 0.0122903 0 1 0
5591 5 -15.1885 -6.69047 -21.4421 -0.0109552 0.00615839 0.0137794 0 1 0
5513 5 -8.92863 -4.13978 -25.3856 -0.0020673 0.00517834 -0.00158386 1 0 0
5511 16 -9.78107 -4.43578 -25.7048 -0.000292166 -0.0016841 -1.40835e-05 1 0 0
5664 18 -12.565 -7.04542 -24.8617 0.000307184 -0.00303515 0.00118078 1 1 1
5665 19 -12.224 -6.07236 -24.2957 -0.00544118 0.000367974 -0.00234846 1 1 1
5512 5 -9.63576 -5.34384 -25.9704 0.00922776 0.00287512 -0.0105354 1 0 0
3125 4 -12.2247 -5.86819 -21.8551 0.00814027 -0.00886106 0.0216022 0 0 0
3128 4 -9.75224 -4.30509 -22.198 0.00116283 0.0186362 0.0223479 0 0 0
3126 10 -9.7533 -5.13127 -21.5024 0.00289999 0.00082507 0.00130254 0 0 0
3123 4 -11.9676 -4.1363 -22.0114 -0.0156302 0.0153764 0.0120188 0 0 0
3007 8 -14.6283 -2.17803 -21.9052 0.00215441 0.00596808 0.000904884 0 0 0
3129 4 -9.72202 -6.06211 -22.0491 -0.0175802 0.000844974 1.7334e-05 0 0 0
3008 2 -13.6864 -2.67802 -22.2169 -0.0133416 0.00725459 -0.0458982 0 0 0
4924 5 -8.4028 -5.91654 -23.9452 0.00796619 -0.00305444 0.0104094 -2 0 0
4923 16 -8.79462 -6.77967 -23.8121 0.00666773 -0.00372968 0.00251123 -2 0 0
4925 5 -8.12629 -7.27642 -23.3401 0.00259925 -0.00632241 0.00556462 -2 0 0
5639 5 -12.4987 -2.84708 -24.4967 -0.00537032 -0.00817623 0.000689884 0 1 0
5637 16 -11.5685 -2.63669 -24.4156 -0.00747502 -0.000416553 0.00457111 0 1 0
5638 5 -11.1181 -3.45376 -24.6295 0.000327609 0.00445526 0.00246982 0 1 0
4962 16 -14.3243 -3.86574 -25.0826 0.00929494 0.00160584 0.0018748 1 0 0
4964 5 -15.2201 -4.05306 -25.3631 0.0141457 -0.0275312 0.00591885 1 0 0
4680 16 -9.27467 -1.05346 -25.1525 0.000590959 0.00106239 -0.0078778 0 0 1
4682 5 -8.63228 -1.64249 -25.5482 0.00170991 0.00131072 -0.00645687 0 0 1
4681 5 -10.086 -1.56102 -25.1335 0.00265007 -0.0020243 -0.00251291 0 0 1
4669 5 -11.5094 -3.51546 -26.6299 -0.00739765 -0.00197488 0.010337 1 1 1
4963 5 -13.8013 -3.94592 -25.8803 0.0137361 -0.017594 0.00678305 1 0 0
3004 8 -14.4263 -0.589072 -21.8616 0.00403947 0.00175831 0.00667535 0 0 0
3005 4 -14.276 -0.25553 -22.8777 -0.0247232 -0.00224849 0.000837119 0 0 0
2991 11 -13.3975 -0.0389784 -21.003 0.00331371 0.00757208 -0.00627841 0 0 0
3127 4 -8.8606 -4.97593 -20.9148 0.010718 0.00621228 -0.0120868 0 0 0
3121 11 -10.9014 -5.12335 -20.5022 0.00400218 0.000640155 -0.00148982 0 0 0
3132 4 -10.3797 -3.07829 -20.1398 -0.00537499 0.00410794 -0.00507818 0 0 0
3014 15 -14.9831 -2.75154 -20.5933 -0.00376838 -0.000764915 -0.00191284 0 0 0
2995 4 -11.6841 -1.12566 -21.7452 0.00171351 0.0101583 0.00338997 0 0 0
2992 10 -12.2081 -1.01713 -20.8071 0.000292533 0.000341315 0.00379114 0 0 0
2993 4 -12.6632 -1.95101 -20.512 0.010726 0.000956401 0.0213228 0 0 0
3009 2 -15.4424 -2.33154 -22.6454 0.016095 -0.00848107 -0.0111063 0 0 0
3006 4 -15.3318 -0.0113775 -21.7494 -0.00218065 -0.00275894 -0.0183918 0 0 0
4746 16 -8.57703 -0.0268308 -22.7595 -0.0029166 0.00059575 -9.48495e-05 -1 0 1
4747 5 -9.1469 -0.285656 -23.4837 -0.00188193 -0.021061 0.00694114 -1 0 1
5151 16 -14.4242 -0.855355 -26.0159 -0.00231732 0.00441458 0.00654194 1 -1 0
5152 5 -14.2003 -1.72315 -25.6798 -0.0103458 -0.00729032 -0.0184719 1 -1 0
2994 4 -11.5749 -0.59899 -20.0387 -0.00578404 -0.0129172 0.0159061 0 0 0
5153 5 -15.2674 -0.65148 -25.6112 -0.00367097 -0.00238864 0.00718913 1 -1 0
3142 12 -14.4477 -7.40372 -19.9954 -0.00738949 0.00623166 -0.00203217 0 0 0
3122 10 -12.1961 -4.93187 -21.3177 -0.0010069 0.00292783 0.00212989 0 0 0
3124 4 -13.1202 -4.88448 -20.7606 -0.00158394 0.0097088 0.000507564 0 0 0
4670 5 -12.0094 -2.96604 -27.949 -0.0120918 0.0224619 0.02232 1 1 1
5719 19 -10.8444 -6.84247 -27.3967 -0.00346427 0.00259564 -0.00148752 0 1 1
4668 16 -12.2088 -3.61635 -27.2755 -0.00101379 -0.000981591 0.00319827 1 1 1
5447 5 -7.86226 -2.93939 -27.7548 0.0118949 0.00728916 -0.00167296 0 1 0
5446 5 -7.98047 -1.46824 -27.4178 -0.00460677 0.00589074 -0.00130069 0 1 0
5472 16 -7.57755 -6.50994 -26.3994 0.00906843 0.00159986 -0.00233164 -1 0 0
5474 5 -7.63099 -7.46547 -26.4173 0.00296662 0.00195182 -0.0045075 -1 0 0
5473 5 -7.69117 -6.2461 -27.3124 -0.00156603 0.00502081 -7.46717e-05 -1 0 0
5380 5 -7.77013 -1.39103 -21.4328 0.00494769 0.00331713 0.0085926 0 1 0
5228 5 -6.80817 -4.64333 -24.505 -0.00841196 -0.0139073 0.00771289 1 0 0
5226 16 -7.50324 -4.04559 -24.2297 -0.00104952 -0.00174749 -4.51043e-05 1 0 0
5227 5 -7.05639 -3.21368 -24.0734 0.00735561 -0.0020866 -0.0222962 1 0 0
5379 16 -7.13895 -2.10608 -21.3521 -0.00562108 -0.00779873 -0.00668661 0 1 0
4597 5 -4.4849 -6.69543 -24.8976 -0.0101506 -0.00174364 0.0157626 0 0 1
4598 5 -5.69133 -6.19269 -25.6615 0.00121696 0.00365626 0.0012615 0 0 1
4596 16 -5.26459 -6.1478 -24.8059 -0.00523417 0.00711463 0.00433544 0 0 1
5146 5 -6.34803 -0.5646 -25.6907 -0.0130887 0.00810368 -0.00242032 0 1 0
4934 5 -6.67015 -1.47284 -23.0238 -0.0044678 0.000139461 0.00340043 0 1 0
5381 5 -7.09334 -2.28092 -20.4121 0.0267256 0.00280996 -0.00625382 0 1 0
2084 4 -6.38347 -4.41304 -21.5858 0.00734305 0.00655102 0.0187263 0 0 0
2083 4 -5.25595 -5.17243 -22.7125 -0.0195072 -0.010056 -0.00556932 0 0 0
2092 4 -4.92574 -2.38887 -21.4932 0.00577986 0.0148683 -0.0143917 0 0 0
2082 10 -5.51158 -5.04464 -21.671 0.000494166 -0.000192202 -0.001927 0 0 0
2090 10 -4.06469 -3.03472 -21.4046 -0.00542988 0.00139605 -0.00164355 0 0 0
2093 4 -3.73196 -3.10584 -22.4296 6.13826e-05 -0.00677321 0.000682323 0 0 0
2085 4 -5.70584 -6.04276 -21.3072 0.00261543 0.0014744 0.0037491 0 0 0
2089 4 -2.85565 -5.18162 -22.1589 -0.0102076 0.00731946 -0.00297263 0 0 0
2081 11 -4.37038 -4.44074 -20.9409 0.00253017 0.00231735 -0.00256467 0 0 0
4287 16 -0.394692 -2.59631 -22.7264 0.00501966 8.40045e-05 4.08272e-05 0 0 1
2091 4 -3.24373 -2.61296 -20.8438 -0.00904029 0.0201652 -0.0106493 0 0 0
4289 5 -0.751543 -2.43124 -21.8537 -0.013062 0.00358573 -0.00809141 0 0 1
2086 10 -3.17361 -5.30411 -21.1341 0.00258168 -0.000927743 8.54195e-05 0 0 0
2087 4 -3.42158 -6.33918 -20.9511 0.0021542 0.00179848 0.0144522 0 0 0
2088 4 -2.33662 -4.9342 -20.5605 -0.00492553 0.0148792 0.00107439 0 0 0
5218 5 -2.15804 -4.51625 -24.4928 -0.000142055 0.000176887 0.00217658 0 0 0
5217 16 -2.40106 -3.62686 -24.2357 -0.00196219 -0.000534088 0.00292348 0 0 0
4288 5 -1.12351 -2.97831 -23.2153 0.016342 -0.00537067 -0.0124132 0 0 1
5219 5 -3.27325 -3.49905 -24.6087 0.00299217 0.00251064 -0.0074194 0 0 0
4231 5 -0.963889 -7.5731 -22.4175 -0.00319485 0.00413838 0.00222327 0 2 1
4230 16 -0.525043 -7.44477 -23.2584 -0.0014771 -0.00469473 0.00176905 0 2 1
5198 5 -4.63594 -3.98265 -26.8844 0.00321972 -0.00950396 0.0160959 1 1 0
4932 16 -6.09573 -1.21918 -23.7463 -0.00644643 0.000216028 0.00185252 0 1 0
4933 5 -5.69272 -0.400767 -23.4564 -0.0147361 0.00644166 -0.00417142 0 1 0
4671 16 -3.16687 -0.251466 -22.9484 0.0056987 -0.00201264 0.00193408 0 0 1
5196 16 -4.6036 -3.1737 -26.3738 -0.000498655 0.000706181 0.000245566 1 1 0
4827 16 -2.01444 -6.09847 -26.3742 0.0103836 0.00159627 -0.00737611 -1 0 1
4829 5 -1.67603 -5.48252 -27.0241 0.0274718 -0.013441 -0.012719 -1 0 1
4828 5 -1.23277 -6.46172 -25.958 3.52782e-05 -0.00915546 0.0026596 -1 0 1
4387 5 -0.333113 -0.387737 -25.1405 0.0166802 0.00830322 0.000857826 -1 1 1
4673 5 -2.49495 -0.706795 -23.4558 -0.00376847 -0.00367625 -0.00899997 0 0 1
5445 16 -7.63154 -2.29527 -27.0854 0.00328065 0.00942248 -0.000748105 0 1 0
5197 5 -5.50985 -3.02322 -26.1049 -0.00499625 0.0149175 -0.0232969 1 1 0
4173 16 -2.56695 -2.01273 -27.729 -0.00266178 0.00307888 -0.00170834 1 1 1
4174 5 -3.34983 -2.47011 -27.4223 -0.00912514 0.00359533 -0.0170088 1 1 1
4175 5 -2.49432 -1.24999 -27.1553 -0.0181931 0.0075123 -0.00559482 1 1 1
4326 16 -4.68474 -5.52287 -27.8707 -0.00445717 0.00103279 -0.00368097 0 -1 1
4327 5 -3.79977 -5.75464 -27.5891 -0.00743061 -0.00328429 0.00208284 0 -1 1
5165 5 -0.322277 -2.79881 -26.3901 0.0189401 -0.011315 0.00117319 1 0 0
5466 16 2.46611 -4.38623 -24.0082 -0.00868923 -0.000992649 0.001072 0 0 0
5467 5 2.13653 -5.27661 -24.1299 0.0226344 -0.00913535 -0.0248027 0 0 0
4492 5 0.883418 -2.07564 -21.3307 0.00313282 -0.0104216 0.00106323 1 0 1
4491 16 1.47162 -1.61486 -20.7325 -0.00312784 0.00466527 -0.00437937 1 0 1
4493 5 0.958782 -0.870513 -20.4176 -0.0090455 0.00823812 -0.0225861 1 0 1
5468 5 3.05205 -4.44827 -23.2539 0.00932795 -0.00657512 -0.0133061 0 0 0
5164 5 0.973185 -2.44086 -25.6934 0.00737587 0.0169881 0.00808676 1 0 0
4232 5 0.400331 -7.34756 -23.0338 -0.00138583 -0.00649475 0.0022374 0 2 1
4271 5 7.48862 -7.33288 -21.5423 -0.012123 -0.0084381 -0.0178338 -1 0 1
5731 19 5.70599 -6.6208 -24.1964 0.00178383 0.0027813 -0.00567668 0 0 0
5730 18 5.78114 -5.51267 -23.9248 -0.00989401 -0.000661392 -0.00100091 0 0 0
5732 19 5.68777 -4.37634 -23.7779 -0.00138407 -0.00335988 -0.00997058 0 0 0
5329 5 3.10442 -0.616547 -22.8629 -0.00181168 -0.0166263 0.0121115 0 0 0
5328 16 3.55083 -0.0503818 -22.2333 0.000179516 -0.00395569 -0.000659203 0 0 0
5163 16 0.210201 -2.05074 -26.1198 0.00233052 0.000259351 0.00183145 1 0 0
5150 5 4.59123 -5.17603 -21.278 0.0040182 4.15916e-05 -0.0125702 0 -1 0
5215 5 3.4745 -3.57234 -25.5614 -0.00525512 -0.00756247 -0.00790047 -1 1 0
5216 5 3.74741 -3.395 -27.0399 -0.00247305 0.0093734 -0.00537012 -1 1 0
5214 16 3.87176 -2.97064 -26.191 -0.00448504 -0.000123042 -0.000323188 -1 1 0
5465 5 1.83685 -7.3499 -21.2045 0.0114544 0.00201864 0.00875492 -1 1 0
5463 16 1.98538 -6.99519 -22.081 -0.00507309 -0.0068842 0.00231437 -1 1 0
5376 16 6.23634 -5.97424 -21.1395 5.8318e-05 0.00549581 -0.000491355 0 2 0
5377 5 5.7514 -6.51052 -20.5122 -0.00211296 0.0103019 0.00200232 0 2 0
5464 5 2.45872 -6.17675 -21.9317 -0.00592317 -0.0032578 -0.01474 -1 1 0
4575 16 4.65339 -2.30546 -20.5887 0.00355761 -0.00248757 0.00121937 0 0 1
4577 5 5.45756 -2.41877 -20.0821 -0.00767555 -0.00419139 0.0189666 0 0 1
4576 5 4.2248 -1.54699 -20.1922 -0.0120851 -0.0123681 0.00312127 0 0 1
5149 5 3.86085 -3.86057 -21.1109 -0.000155246 -0.00356805 -0.00229806 0 -1 0
5148 16 3.79347 -4.71492 -21.5372 0.00082953 -0.00186078 -0.00595658 0 -1 0
5330 5 3.46785 -0.508966 -21.3973 -0.00549673 0.0174341 0.010526 0 0 0
4858 5 6.24986 -1.56742 -23.8834 0.000100417 -0.00403298 0.00619474 0 1 1
4859 5 5.97867 -1.65292 -22.3965 0.0169354 -0.0179424 0.00845331 0 1 1
4857 16 6.57546 -1.26415 -23.0359 0.00441201 -0.00466375 0.00476048 0 1 1
5204 5 6.03366 -0.544504 -26.2062 0.00904825 0.0147516 0.00444759 0 0 0
5203 5 4.81389 -1.36455 -25.8435 0.0145018 0.000329924 -0.00980938 0 0 0
5202 16 5.44114 -0.73946 -25.4801 0.00244297 0.00823555 -0.00268026 0 0 0
5509 5 2.29386 -2.67854 -23.7959 -0.0157266 -0.00555672 -0.00292138 0 1 0
5510 5 1.11963 -1.75694 -23.5436 -0.0135293 0.00305641 -0.0239014 0 1 0
5378 5 6.69526 -5.33017 -20.6003 -0.00150718 0.00942119 -0.00378172 0 2 0
5722 19 6.16851 -5.30684 -27.6128 -0.00265788 0.00480033 -0.00265988 0 0 1
4664 5 2.53707 -0.292551 -25.208 0.00339873 -0.00099728 0.00255478 0 2 1
5508 16 1.997 -1.77785 -23.9257 -0.00128663 0.000237645 0.00465784 0 1 0
4269 16 8.25216 -7.69836 -21.9892 0.00473584 0.00412349 0.000658326 -1 0 1
5589 16 15.546 -6.09113 -21.9031 -0.000370032 0.00503497 -0.000986452 -1 1 0
4621 5 13.667 -6.7759 -22.502 -0.00229688 0.0171085 -0.00252582 -1 -1 1
4622 5 13.0167 -7.44534 -23.694 0.0040541 0.00149906 0.00274227 -1 -1 1
4620 16 12.8159 -6.93257 -22.9111 -0.0017661 -0.00234725 0.00380603 -1 -1 1
4572 16 14.7309 -3.60433 -27.2699 0.00383488 -3.22819e-05 0.00417978 0 -1 1
4763 5 8.09927 -2.1925 -22.8516 -0.00979973 -0.0279759 0.000185238 0 0 1
4970 5 8.64885 -6.92672 -23.6199 0.00421356 -8.24028e-05 0.000496335 1 1 0
5201 5 7.97568 -4.46392 -25.3833 -0.00667739 -0.00742515 -0.0198252 1 0 0
5200 5 8.96095 -3.42418 -24.8934 0.00012392 -0.0270424 0.00812498 1 0 0
5199 16 8.34111 -3.60612 -25.5997 4.27518e-05 -0.00470374 0.00236643 1 0 0
5002 5 10.8717 -0.529801 -24.9646 -0.00785376 -0.0037103 0.00233279 -1 0 0
5675 19 12.0212 -5.1758 -27.1645 -0.00951265 -0.00141644 -0.00124284 0 0 1
5674 19 12.4234 -4.48287 -24.999 -0.00209989 -0.00233434 0.00420567 0 0 1
5673 18 12.274 -4.85061 -26.0869 -0.00755128 -0.00593145 0.0030076 0 0 1
2862 10 12.1988 -5.7828 -20.1378 -0.000276114 0.00471513 -0.00236471 0 0 0
2865 4 12.296 -6.45403 -20.9783 0.00317023 0.00719258 -0.00400182 0 0 0
4573 5 14.4368 -4.26053 -27.9016 0.0167018 -0.0102328 0.00887873 0 -1 1
2872 4 10.271 -5.95699 -21.7572 0.00112809 0.0166934 -0.0101284 0 0 0
2869 4 12.2442 -4.59904 -22.5804 0.011873 -0.00643977 -0.00170883 0 0 0
2866 10 12.1758 -4.02494 -21.6682 -0.00389499 -0.00819118 -0.00172502 0 0 0
3012 12 14.0964 -1.6913 -20.916 -0.00307162 0.00257432 -0.00277156 -1 0 0
4762 5 9.27526 -2.47542 -21.9413 0.00232986 0.0171929 -0.00110084 0 0 1
4761 16 8.98551 -2.55413 -22.8501 0.00275396 0.00243635 2.27839e-06 0 0 1
4717 5 13.2495 -0.561683 -21.7246 0.0136935 0.00526574 -0.00860348 -1 1 1
2868 4 11.7218 -3.09667 -21.9822 0.0105059 0.00356366 0.0127204 0 0 0
2870 10 10.0664 -5.16094 -21.0566 -0.00510637 0.00332704 0.0033613 0 0 0
2873 4 9.48308 -4.41716 -21.579 0.0222103 0.0199857 -0.00305742 0 0 0
2861 11 11.3303 -4.66341 -20.5982 0.00720538 -0.00389193 0.0028306 0 0 0